3906
Atoms. Timestep: 3000000
1 4.01995 0.585217 24.5161
2 5.06982 0.270844 24.9676
4 5.70992 -0.144245 24.064
1 5.1245 -0.912973 25.1036
2 4.68766 -0.990294 26.2233
5 4.01297 -2.00694 26.1821
1 5.26388 -1.87029 26.8468
2 4.63023 -1.87248 27.8869
6 5.36787 -1.81407 28.8018
1 3.76138 -1.11332 27.5481
2 3.32078 -0.521514 28.4707
7 2.66436 -1.37478 29.0322
1 3.44087 0.620099 28.1168
2 2.37038 1.03077 28.3929
8 1.88624 0.134625 29.0615
1 1.6118 0.542684 27.58
2 0.607689 1.08044 27.9485
9 -0.206205 0.251653 27.7609
1 -0.146716 1.23021 27.014
2 -1.03873 1.89936 27.5508
10 -0.664665 2.05384 28.6763
1 -1.61234 2.39966 26.5903
2 -2.69033 1.95503 26.7641
11 -2.88166 2.34175 27.8752
1 -3.5192 2.75267 26.4731
2 -4.13028 2.79098 27.4941
12 -4.4522 1.64314 27.5271
1 -5.16673 3.30696 27.2995
2 -5.53192 3.65443 28.4218
13 -4.68199 4.44543 28.742
1 -6.36775 4.50831 28.2884
2 -6.73242 4.91702 29.355
14 -6.59761 4.03989 30.1279
1 -7.92439 4.98946 29.2102
2 -8.27498 5.00457 30.3487
15 -7.46622 4.45663 31.0022
1 -9.03534 5.90968 30.3808
2 -8.66997 6.56399 31.3481
16 -8.93969 5.84891 32.286
1 -9.58293 7.2551 31.6265
2 -10.4586 6.41706 31.6381
17 -10.6438 6.47563 32.8038
1 -11.1908 6.37782 30.6555
2 -12.121 5.69211 30.8432
18 -11.8556 5.05086 31.8146
1 -12.6445 5.95096 31.9044
2 -13.7813 5.59883 31.8809
19 -14.1157 6.24618 32.8228
1 -13.819 4.52919 31.3726
2 -14.9362 4.09599 31.2922
20 -15.2245 3.66779 32.3658
1 -14.8908 2.91314 31.3325
2 -16.1003 2.68969 31.2606
21 -16.4608 3.1691 32.3091
1 -16.186 1.71815 30.523
2 -17.1368 1.15731 31.02
22 -16.7702 0.920627 32.1501
1 -17.1678 0.0502871 30.5655
2 -18.3309 -0.256551 30.5095
23 -18.8318 0.660357 31.1149
1 -18.5028 -0.777731 29.4426
2 -19.3983 -1.53722 29.453
24 -19.3248 -2.23641 30.4205
1 -20.4189 -0.931061 29.2949
2 -20.8351 -0.332916 30.2395
25 -20.8221 0.764166 29.766
1 -21.8007 -0.921642 30.5603
2 -22.1156 -1.64091 29.6438
3 -21.377 -1.28855 28.761
1 -23.2962 -1.52054 29.7748
2 -23.5089 -2.16998 30.6841
3 -22.591 -2.98507 30.6273
1 -22.5883 -1.82642 31.3803
2 -22.7871 -2.27253 32.4535
3 -21.7578 -2.85707 32.6158
1 -22.3698 -1.48101 33.2828
2 -22.5471 -0.297506 33.0338
3 -23.7315 -0.269339 33.2141
1 -21.4566 0.0738927 33.2811
2 -20.7822 -0.393685 32.3819
25 -20.2741 0.449176 31.6266
1 -19.9684 -0.860239 33.1433
2 -19.3692 -1.55053 32.3823
24 -20.1488 -1.99329 31.6
1 -18.3767 -1.79353 32.9906
2 -17.8647 -0.693638 33.1586
23 -18.4486 0.110667 32.5075
1 -17.2181 -0.77048 34.1993
2 -16.6369 0.289162 34.2599
22 -16.439 0.565488 33.1239
1 -17.4911 1.08769 34.3866
2 -17.0813 2.12736 33.9857
21 -16.634 2.06639 32.8665
1 -16.1978 2.41274 34.7009
2 -15.5796 3.19004 34.0183
20 -15.49 2.63231 32.9517
1 -15.1604 3.98915 34.7749
2 -14.0217 3.77407 34.7801
19 -13.6579 4.87032 34.4293
1 -13.8203 3.48296 33.6298
2 -12.8763 4.15899 33.396
18 -12.9156 4.10268 32.1638
1 -12.3042 4.37426 34.3947
2 -11.1671 4.63527 34.0637
17 -11.0931 5.76038 34.4288
1 -10.6233 3.6639 33.5584
2 -9.48936 4.01571 33.2517
16 -9.61367 4.8983 32.4753
1 -9.07572 3.03442 32.7275
2 -8.40005 3.40828 31.807
15 -7.34845 3.60354 32.3428
1 -7.7712 2.46133 31.4095
2 -6.89627 3.00888 30.868
14 -5.99558 2.94048 31.6312
1 -6.32709 2.27561 30.0973
2 -5.21955 2.7457 29.9217
13 -5.3599 3.87505 30.2704
1 -4.51746 2.23109 30.7232
2 -3.892 1.34291 30.246
12 -4.31573 1.26663 29.1229
1 -2.75701 1.71145 30.2931
2 -2.34319 1.02662 29.4199
11 -3.08691 1.3786 28.5365
1 -2.01277 -0.060824 29.8221
2 -0.880867 -0.0132009 30.2781
10 -0.440721 0.836568 29.5479
1 -0.343813 -0.866009 29.7213
2 0.217368 -0.485196 28.7103
9 -0.601666 -0.79341 27.8942
1 0.594373 -1.44365 28.1218
2 1.47968 -1.78872 28.817
8 1.59085 -0.989591 29.6777
1 2.1153 -2.64508 28.2759
2 2.48584 -3.43771 29.1146
7 3.32694 -2.86701 29.748
1 2.93675 -4.2775 28.3848
2 3.41871 -3.54727 27.5276
6 4.5491 -3.35633 27.8871
1 2.92725 -3.84738 26.4893
2 3.37973 -3.16733 25.5954
5 2.90334 -2.06856 25.7136
1 4.28683 -3.78051 25.1374
2 4.44792 -3.36266 24.0049
4 4.98438 -2.34421 24.2462
1 3.77051 -4.18424 23.4944
2 3.39474 -3.68548 22.4354
3 2.45018 -4.30602 22.0394
1 2.60868 -2.78977 22.7302
2 3.2953 -1.83746 22.5878
3 4.30406 -2.27301 22.1318
1 3.10388 -1.5017 21.4371
2 1.89843 -1.46223 21.3365
3 1.64646 -2.61573 21.1992
1 1.66396 -0.284127 21.3112
2 1.67208 -0.0869141 20.1027
3 1.92898 -1.07086 19.5309
1 0.510745 0.00869902 19.7994
2 0.422882 1.17396 19.5325
3 1.27445 1.60767 20.1995
1 -0.179504 1.28328 18.5001
2 0.449455 0.725905 17.635
3 0.958484 1.60138 16.9511
1 -0.320292 0.0810437 16.9925
2 0.30252 -0.697762 16.3671
3 0.000285479 -1.72893 16.9235
1 0.0945054 -0.400678 15.2481
2 1.12975 -0.434582 14.674
3 1.29568 -1.5368 14.2374
1 0.996232 0.113189 13.6024
2 0.562238 -0.687139 12.8328
3 0.835226 -1.7677 13.2909
1 1.03957 -0.532953 11.7312
2 0.0877698 -0.518889 11.0297
3 -0.427904 0.538454 11.1675
1 0.387291 0.301874 10.1835
2 0.358112 -0.477414 9.28037
3 -0.635543 -0.077763 8.72098
1 0.835116 0.056633 8.30902
2 -0.0755434 0.162967 7.54497
3 0.194449 -0.750592 6.79299
1 0.289062 0.836945 6.63661
2 -0.288177 0.359963 5.73607
3 0.497188 -0.422576 5.28158
1 0.313297 0.698778 4.73154
2 0.583661 -0.316917 4.09406
3 -0.465834 -0.538558 3.52374
1 0.798963 0.0948806 3.00595
2 -0.098848 -0.402689 2.32892
3 -0.545698 0.372758 1.57766
1 0.476442 -0.521649 1.26644
2 -0.385719 -0.395265 0.434582
3 -0.0440667 0.50964 -0.27342
1 0.275995 -0.7364 -0.533483
2 -0.320427 -0.140657 -1.44088
3 0.398011 0.78834 -1.73466
1 0.2659 -0.274503 -2.46522
2 -0.492247 -0.024881 -3.34913
3 -0.0201276 -0.797036 -4.19434
1 0.342657 0.280266 -4.18533
2 -0.216904 0.159941 -5.22807
3 0.280158 0.812351 -6.10731
1 0.573258 -0.353979 -5.98565
2 0.120722 -0.500961 -7.07068
3 -0.774967 0.266796 -7.089
1 0.483599 0.492237 -7.63621
2 -0.0264803 0.529777 -8.73781
3 -0.351312 -0.600786 -8.99616
1 0.776211 0.0431992 -9.49835
2 0.368902 -0.0603104 -10.5956
3 1.27449 -0.412346 -11.2502
1 0.900186 0.775614 -11.2819
2 0.56364 0.510554 -12.406
3 0.645763 1.46781 -13.1065
1 -0.5 0 -12.23
2 -0.240938 -1.09402 -11.8104
3 -0.467098 -1.74937 -12.817
26 -20 -20 10
26 -20 -19 10
26 -20 -18 10
26 -20 -17 10
26 -20 -16 10
26 -20 -15 10
26 -20 -14 10
26 -20 -13 10
26 -20 -12 10
26 -20 -11 10
26 -20 -10 10
26 -20 -9 10
26 -20 -8 10
26 -20 -7 10
26 -20 -6 10
26 -20 -5 10
26 -20 -4 10
26 -20 -3 10
26 -20 -2 10
26 -20 -1 10
26 -20 0 10
26 -20 1 10
26 -20 2 10
26 -20 3 10
26 -20 4 10
26 -20 5 10
26 -20 6 10
26 -20 7 10
26 -20 8 10
26 -20 9 10
26 -20 10 10
26 -20 11 10
26 -20 12 10
26 -20 13 10
26 -20 14 10
26 -20 15 10
26 -20 16 10
26 -20 17 10
26 -20 18 10
26 -20 19 10
26 -20 20 10
26 -19 -20 10
26 -19 -19 10
26 -19 -18 10
26 -19 -17 10
26 -19 -16 10
26 -19 -15 10
26 -19 -14 10
26 -19 -13 10
26 -19 -12 10
26 -19 -11 10
26 -19 -10 10
26 -19 -9 10
26 -19 -8 10
26 -19 -7 10
26 -19 -6 10
26 -19 -5 10
26 -19 -4 10
26 -19 -3 10
26 -19 -2 10
26 -19 -1 10
26 -19 0 10
26 -19 1 10
26 -19 2 10
26 -19 3 10
26 -19 4 10
26 -19 5 10
26 -19 6 10
26 -19 7 10
26 -19 8 10
26 -19 9 10
26 -19 10 10
26 -19 11 10
26 -19 12 10
26 -19 13 10
26 -19 14 10
26 -19 15 10
26 -19 16 10
26 -19 17 10
26 -19 18 10
26 -19 19 10
26 -19 20 10
26 -18 -20 10
26 -18 -19 10
26 -18 -18 10
26 -18 -17 10
26 -18 -16 10
26 -18 -15 10
26 -18 -14 10
26 -18 -13 10
26 -18 -12 10
26 -18 -11 10
26 -18 -10 10
26 -18 -9 10
26 -18 -8 10
26 -18 -7 10
26 -18 -6 10
26 -18 -5 10
26 -18 -4 10
26 -18 -3 10
26 -18 -2 10
26 -18 -1 10
26 -18 0 10
26 -18 1 10
26 -18 2 10
26 -18 3 10
26 -18 4 10
26 -18 5 10
26 -18 6 10
26 -18 7 10
26 -18 8 10
26 -18 9 10
26 -18 10 10
26 -18 11 10
26 -18 12 10
26 -18 13 10
26 -18 14 10
26 -18 15 10
26 -18 16 10
26 -18 17 10
26 -18 18 10
26 -18 19 10
26 -18 20 10
26 -17 -20 10
26 -17 -19 10
26 -17 -18 10
26 -17 -17 10
26 -17 -16 10
26 -17 -15 10
26 -17 -14 10
26 -17 -13 10
26 -17 -12 10
26 -17 -11 10
26 -17 -10 10
26 -17 -9 10
26 -17 -8 10
26 -17 -7 10
26 -17 -6 10
26 -17 -5 10
26 -17 -4 10
26 -17 -3 10
26 -17 -2 10
26 -17 -1 10
26 -17 0 10
26 -17 1 10
26 -17 2 10
26 -17 3 10
26 -17 4 10
26 -17 5 10
26 -17 6 10
26 -17 7 10
26 -17 8 10
26 -17 9 10
26 -17 10 10
26 -17 11 10
26 -17 12 10
26 -17 13 10
26 -17 14 10
26 -17 15 10
26 -17 16 10
26 -17 17 10
26 -17 18 10
26 -17 19 10
26 -17 20 10
26 -16 -20 10
26 -16 -19 10
26 -16 -18 10
26 -16 -17 10
26 -16 -16 10
26 -16 -15 10
26 -16 -14 10
26 -16 -13 10
26 -16 -12 10
26 -16 -11 10
26 -16 -10 10
26 -16 -9 10
26 -16 -8 10
26 -16 -7 10
26 -16 -6 10
26 -16 -5 10
26 -16 -4 10
26 -16 -3 10
26 -16 -2 10
26 -16 -1 10
26 -16 0 10
26 -16 1 10
26 -16 2 10
26 -16 3 10
26 -16 4 10
26 -16 5 10
26 -16 6 10
26 -16 7 10
26 -16 8 10
26 -16 9 10
26 -16 10 10
26 -16 11 10
26 -16 12 10
26 -16 13 10
26 -16 14 10
26 -16 15 10
26 -16 16 10
26 -16 17 10
26 -16 18 10
26 -16 19 10
26 -16 20 10
26 -15 -20 10
26 -15 -19 10
26 -15 -18 10
26 -15 -17 10
26 -15 -16 10
26 -15 -15 10
26 -15 -14 10
26 -15 -13 10
26 -15 -12 10
26 -15 -11 10
26 -15 -10 10
26 -15 -9 10
26 -15 -8 10
26 -15 -7 10
26 -15 -6 10
26 -15 -5 10
26 -15 -4 10
26 -15 -3 10
26 -15 -2 10
26 -15 -1 10
26 -15 0 10
26 -15 1 10
26 -15 2 10
26 -15 3 10
26 -15 4 10
26 -15 5 10
26 -15 6 10
26 -15 7 10
26 -15 8 10
26 -15 9 10
26 -15 10 10
26 -15 11 10
26 -15 12 10
26 -15 13 10
26 -15 14 10
26 -15 15 10
26 -15 16 10
26 -15 17 10
26 -15 18 10
26 -15 19 10
26 -15 20 10
26 -14 -20 10
26 -14 -19 10
26 -14 -18 10
26 -14 -17 10
26 -14 -16 10
26 -14 -15 10
26 -14 -14 10
26 -14 -13 10
26 -14 -12 10
26 -14 -11 10
26 -14 -10 10
26 -14 -9 10
26 -14 -8 10
26 -14 -7 10
26 -14 -6 10
26 -14 -5 10
26 -14 -4 10
26 -14 -3 10
26 -14 -2 10
26 -14 -1 10
26 -14 0 10
26 -14 1 10
26 -14 2 10
26 -14 3 10
26 -14 4 10
26 -14 5 10
26 -14 6 10
26 -14 7 10
26 -14 8 10
26 -14 9 10
26 -14 10 10
26 -14 11 10
26 -14 12 10
26 -14 13 10
26 -14 14 10
26 -14 15 10
26 -14 16 10
26 -14 17 10
26 -14 18 10
26 -14 19 10
26 -14 20 10
26 -13 -20 10
26 -13 -19 10
26 -13 -18 10
26 -13 -17 10
26 -13 -16 10
26 -13 -15 10
26 -13 -14 10
26 -13 -13 10
26 -13 -12 10
26 -13 -11 10
26 -13 -10 10
26 -13 -9 10
26 -13 -8 10
26 -13 -7 10
26 -13 -6 10
26 -13 -5 10
26 -13 -4 10
26 -13 -3 10
26 -13 -2 10
26 -13 -1 10
26 -13 0 10
26 -13 1 10
26 -13 2 10
26 -13 3 10
26 -13 4 10
26 -13 5 10
26 -13 6 10
26 -13 7 10
26 -13 8 10
26 -13 9 10
26 -13 10 10
26 -13 11 10
26 -13 12 10
26 -13 13 10
26 -13 14 10
26 -13 15 10
26 -13 16 10
26 -13 17 10
26 -13 18 10
26 -13 19 10
26 -13 20 10
26 -12 -20 10
26 -12 -19 10
26 -12 -18 10
26 -12 -17 10
26 -12 -16 10
26 -12 -15 10
26 -12 -14 10
26 -12 -13 10
26 -12 -12 10
26 -12 -11 10
26 -12 -10 10
26 -12 -9 10
26 -12 -8 10
26 -12 -7 10
26 -12 -6 10
26 -12 -5 10
26 -12 -4 10
26 -12 -3 10
26 -12 -2 10
26 -12 -1 10
26 -12 0 10
26 -12 1 10
26 -12 2 10
26 -12 3 10
26 -12 4 10
26 -12 5 10
26 -12 6 10
26 -12 7 10
26 -12 8 10
26 -12 9 10
26 -12 10 10
26 -12 11 10
26 -12 12 10
26 -12 13 10
26 -12 14 10
26 -12 15 10
26 -12 16 10
26 -12 17 10
26 -12 18 10
26 -12 19 10
26 -12 20 10
26 -11 -20 10
26 -11 -19 10
26 -11 -18 10
26 -11 -17 10
26 -11 -16 10
26 -11 -15 10
26 -11 -14 10
26 -11 -13 10
26 -11 -12 10
26 -11 -11 10
26 -11 -10 10
26 -11 -9 10
26 -11 -8 10
26 -11 -7 10
26 -11 -6 10
26 -11 -5 10
26 -11 -4 10
26 -11 -3 10
26 -11 -2 10
26 -11 -1 10
26 -11 0 10
26 -11 1 10
26 -11 2 10
26 -11 3 10
26 -11 4 10
26 -11 5 10
26 -11 6 10
26 -11 7 10
26 -11 8 10
26 -11 9 10
26 -11 10 10
26 -11 11 10
26 -11 12 10
26 -11 13 10
26 -11 14 10
26 -11 15 10
26 -11 16 10
26 -11 17 10
26 -11 18 10
26 -11 19 10
26 -11 20 10
26 -10 -20 10
26 -10 -19 10
26 -10 -18 10
26 -10 -17 10
26 -10 -16 10
26 -10 -15 10
26 -10 -14 10
26 -10 -13 10
26 -10 -12 10
26 -10 -11 10
26 -10 -10 10
26 -10 -9 10
26 -10 -8 10
26 -10 -7 10
26 -10 -6 10
26 -10 -5 10
26 -10 -4 10
26 -10 -3 10
26 -10 -2 10
26 -10 -1 10
26 -10 0 10
26 -10 1 10
26 -10 2 10
26 -10 3 10
26 -10 4 10
26 -10 5 10
26 -10 6 10
26 -10 7 10
26 -10 8 10
26 -10 9 10
26 -10 10 10
26 -10 11 10
26 -10 12 10
26 -10 13 10
26 -10 14 10
26 -10 15 10
26 -10 16 10
26 -10 17 10
26 -10 18 10
26 -10 19 10
26 -10 20 10
26 -9 -20 10
26 -9 -19 10
26 -9 -18 10
26 -9 -17 10
26 -9 -16 10
26 -9 -15 10
26 -9 -14 10
26 -9 -13 10
26 -9 -12 10
26 -9 -11 10
26 -9 -10 10
26 -9 -9 10
26 -9 -8 10
26 -9 -7 10
26 -9 -6 10
26 -9 -5 10
26 -9 -4 10
26 -9 -3 10
26 -9 -2 10
26 -9 -1 10
26 -9 0 10
26 -9 1 10
26 -9 2 10
26 -9 3 10
26 -9 4 10
26 -9 5 10
26 -9 6 10
26 -9 7 10
26 -9 8 10
26 -9 9 10
26 -9 10 10
26 -9 11 10
26 -9 12 10
26 -9 13 10
26 -9 14 10
26 -9 15 10
26 -9 16 10
26 -9 17 10
26 -9 18 10
26 -9 19 10
26 -9 20 10
26 -8 -20 10
26 -8 -19 10
26 -8 -18 10
26 -8 -17 10
26 -8 -16 10
26 -8 -15 10
26 -8 -14 10
26 -8 -13 10
26 -8 -12 10
26 -8 -11 10
26 -8 -10 10
26 -8 -9 10
26 -8 -8 10
26 -8 -7 10
26 -8 -6 10
26 -8 -5 10
26 -8 -4 10
26 -8 -3 10
26 -8 -2 10
26 -8 -1 10
26 -8 0 10
26 -8 1 10
26 -8 2 10
26 -8 3 10
26 -8 4 10
26 -8 5 10
26 -8 6 10
26 -8 7 10
26 -8 8 10
26 -8 9 10
26 -8 10 10
26 -8 11 10
26 -8 12 10
26 -8 13 10
26 -8 14 10
26 -8 15 10
26 -8 16 10
26 -8 17 10
26 -8 18 10
26 -8 19 10
26 -8 20 10
26 -7 -20 10
26 -7 -19 10
26 -7 -18 10
26 -7 -17 10
26 -7 -16 10
26 -7 -15 10
26 -7 -14 10
26 -7 -13 10
26 -7 -12 10
26 -7 -11 10
26 -7 -10 10
26 -7 -9 10
26 -7 -8 10
26 -7 -7 10
26 -7 -6 10
26 -7 -5 10
26 -7 -4 10
26 -7 -3 10
26 -7 -2 10
26 -7 -1 10
26 -7 0 10
26 -7 1 10
26 -7 2 10
26 -7 3 10
26 -7 4 10
26 -7 5 10
26 -7 6 10
26 -7 7 10
26 -7 8 10
26 -7 9 10
26 -7 10 10
26 -7 11 10
26 -7 12 10
26 -7 13 10
26 -7 14 10
26 -7 15 10
26 -7 16 10
26 -7 17 10
26 -7 18 10
26 -7 19 10
26 -7 20 10
26 -6 -20 10
26 -6 -19 10
26 -6 -18 10
26 -6 -17 10
26 -6 -16 10
26 -6 -15 10
26 -6 -14 10
26 -6 -13 10
26 -6 -12 10
26 -6 -11 10
26 -6 -10 10
26 -6 -9 10
26 -6 -8 10
26 -6 -7 10
26 -6 -6 10
26 -6 -5 10
26 -6 -4 10
26 -6 -3 10
26 -6 -2 10
26 -6 -1 10
26 -6 0 10
26 -6 1 10
26 -6 2 10
26 -6 3 10
26 -6 4 10
26 -6 5 10
26 -6 6 10
26 -6 7 10
26 -6 8 10
26 -6 9 10
26 -6 10 10
26 -6 11 10
26 -6 12 10
26 -6 13 10
26 -6 14 10
26 -6 15 10
26 -6 16 10
26 -6 17 10
26 -6 18 10
26 -6 19 10
26 -6 20 10
26 -5 -20 10
26 -5 -19 10
26 -5 -18 10
26 -5 -17 10
26 -5 -16 10
26 -5 -15 10
26 -5 -14 10
26 -5 -13 10
26 -5 -12 10
26 -5 -11 10
26 -5 -10 10
26 -5 -9 10
26 -5 -8 10
26 -5 -7 10
26 -5 -6 10
26 -5 -5 10
26 -5 -4 10
26 -5 -3 10
26 -5 -2 10
26 -5 -1 10
26 -5 0 10
26 -5 1 10
26 -5 2 10
26 -5 3 10
26 -5 4 10
26 -5 5 10
26 -5 6 10
26 -5 7 10
26 -5 8 10
26 -5 9 10
26 -5 10 10
26 -5 11 10
26 -5 12 10
26 -5 13 10
26 -5 14 10
26 -5 15 10
26 -5 16 10
26 -5 17 10
26 -5 18 10
26 -5 19 10
26 -5 20 10
26 -4 -20 10
26 -4 -19 10
26 -4 -18 10
26 -4 -17 10
26 -4 -16 10
26 -4 -15 10
26 -4 -14 10
26 -4 -13 10
26 -4 -12 10
26 -4 -11 10
26 -4 -10 10
26 -4 -9 10
26 -4 -8 10
26 -4 -7 10
26 -4 -6 10
26 -4 -5 10
26 -4 -4 10
26 -4 -3 10
26 -4 -2 10
26 -4 -1 10
26 -4 0 10
26 -4 1 10
26 -4 2 10
26 -4 3 10
26 -4 4 10
26 -4 5 10
26 -4 6 10
26 -4 7 10
26 -4 8 10
26 -4 9 10
26 -4 10 10
26 -4 11 10
26 -4 12 10
26 -4 13 10
26 -4 14 10
26 -4 15 10
26 -4 16 10
26 -4 17 10
26 -4 18 10
26 -4 19 10
26 -4 20 10
26 -3 -20 10
26 -3 -19 10
26 -3 -18 10
26 -3 -17 10
26 -3 -16 10
26 -3 -15 10
26 -3 -14 10
26 -3 -13 10
26 -3 -12 10
26 -3 -11 10
26 -3 -10 10
26 -3 -9 10
26 -3 -8 10
26 -3 -7 10
26 -3 -6 10
26 -3 -5 10
26 -3 -4 10
26 -3 -3 10
26 -3 -2 10
26 -3 -1 10
26 -3 0 10
26 -3 1 10
26 -3 2 10
26 -3 3 10
26 -3 4 10
26 -3 5 10
26 -3 6 10
26 -3 7 10
26 -3 8 10
26 -3 9 10
26 -3 10 10
26 -3 11 10
26 -3 12 10
26 -3 13 10
26 -3 14 10
26 -3 15 10
26 -3 16 10
26 -3 17 10
26 -3 18 10
26 -3 19 10
26 -3 20 10
26 -2 -20 10
26 -2 -19 10
26 -2 -18 10
26 -2 -17 10
26 -2 -16 10
26 -2 -15 10
26 -2 -14 10
26 -2 -13 10
26 -2 -12 10
26 -2 -11 10
26 -2 -10 10
26 -2 -9 10
26 -2 -8 10
26 -2 -7 10
26 -2 -6 10
26 -2 -5 10
26 -2 -4 10
26 -2 -3 10
26 -2 3 10
26 -2 4 10
26 -2 5 10
26 -2 6 10
26 -2 7 10
26 -2 8 10
26 -2 9 10
26 -2 10 10
26 -2 11 10
26 -2 12 10
26 -2 13 10
26 -2 14 10
26 -2 15 10
26 -2 16 10
26 -2 17 10
26 -2 18 10
26 -2 19 10
26 -2 20 10
26 -1 -20 10
26 -1 -19 10
26 -1 -18 10
26 -1 -17 10
26 -1 -16 10
26 -1 -15 10
26 -1 -14 10
26 -1 -13 10
26 -1 -12 10
26 -1 -11 10
26 -1 -10 10
26 -1 -9 10
26 -1 -8 10
26 -1 -7 10
26 -1 -6 10
26 -1 -5 10
26 -1 -4 10
26 -1 -3 10
26 -1 3 10
26 -1 4 10
26 -1 5 10
26 -1 6 10
26 -1 7 10
26 -1 8 10
26 -1 9 10
26 -1 10 10
26 -1 11 10
26 -1 12 10
26 -1 13 10
26 -1 14 10
26 -1 15 10
26 -1 16 10
26 -1 17 10
26 -1 18 10
26 -1 19 10
26 -1 20 10
26 0 -20 10
26 0 -19 10
26 0 -18 10
26 0 -17 10
26 0 -16 10
26 0 -15 10
26 0 -14 10
26 0 -13 10
26 0 -12 10
26 0 -11 10
26 0 -10 10
26 0 -9 10
26 0 -8 10
26 0 -7 10
26 0 -6 10
26 0 -5 10
26 0 -4 10
26 0 -3 10
26 0 3 10
26 0 4 10
26 0 5 10
26 0 6 10
26 0 7 10
26 0 8 10
26 0 9 10
26 0 10 10
26 0 11 10
26 0 12 10
26 0 13 10
26 0 14 10
26 0 15 10
26 0 16 10
26 0 17 10
26 0 18 10
26 0 19 10
26 0 20 10
26 1 -20 10
26 1 -19 10
26 1 -18 10
26 1 -17 10
26 1 -16 10
26 1 -15 10
26 1 -14 10
26 1 -13 10
26 1 -12 10
26 1 -11 10
26 1 -10 10
26 1 -9 10
26 1 -8 10
26 1 -7 10
26 1 -6 10
26 1 -5 10
26 1 -4 10
26 1 -3 10
26 1 3 10
26 1 4 10
26 1 5 10
26 1 6 10
26 1 7 10
26 1 8 10
26 1 9 10
26 1 10 10
26 1 11 10
26 1 12 10
26 1 13 10
26 1 14 10
26 1 15 10
26 1 16 10
26 1 17 10
26 1 18 10
26 1 19 10
26 1 20 10
26 2 -20 10
26 2 -19 10
26 2 -18 10
26 2 -17 10
26 2 -16 10
26 2 -15 10
26 2 -14 10
26 2 -13 10
26 2 -12 10
26 2 -11 10
26 2 -10 10
26 2 -9 10
26 2 -8 10
26 2 -7 10
26 2 -6 10
26 2 -5 10
26 2 -4 10
26 2 -3 10
26 2 3 10
26 2 4 10
26 2 5 10
26 2 6 10
26 2 7 10
26 2 8 10
26 2 9 10
26 2 10 10
26 2 11 10
26 2 12 10
26 2 13 10
26 2 14 10
26 2 15 10
26 2 16 10
26 2 17 10
26 2 18 10
26 2 19 10
26 2 20 10
26 3 -20 10
26 3 -19 10
26 3 -18 10
26 3 -17 10
26 3 -16 10
26 3 -15 10
26 3 -14 10
26 3 -13 10
26 3 -12 10
26 3 -11 10
26 3 -10 10
26 3 -9 10
26 3 -8 10
26 3 -7 10
26 3 -6 10
26 3 -5 10
26 3 -4 10
26 3 -3 10
26 3 -2 10
26 3 -1 10
26 3 0 10
26 3 1 10
26 3 2 10
26 3 3 10
26 3 4 10
26 3 5 10
26 3 6 10
26 3 7 10
26 3 8 10
26 3 9 10
26 3 10 10
26 3 11 10
26 3 12 10
26 3 13 10
26 3 14 10
26 3 15 10
26 3 16 10
26 3 17 10
26 3 18 10
26 3 19 10
26 3 20 10
26 4 -20 10
26 4 -19 10
26 4 -18 10
26 4 -17 10
26 4 -16 10
26 4 -15 10
26 4 -14 10
26 4 -13 10
26 4 -12 10
26 4 -11 10
26 4 -10 10
26 4 -9 10
26 4 -8 10
26 4 -7 10
26 4 -6 10
26 4 -5 10
26 4 -4 10
26 4 -3 10
26 4 -2 10
26 4 -1 10
26 4 0 10
26 4 1 10
26 4 2 10
26 4 3 10
26 4 4 10
26 4 5 10
26 4 6 10
26 4 7 10
26 4 8 10
26 4 9 10
26 4 10 10
26 4 11 10
26 4 12 10
26 4 13 10
26 4 14 10
26 4 15 10
26 4 16 10
26 4 17 10
26 4 18 10
26 4 19 10
26 4 20 10
26 5 -20 10
26 5 -19 10
26 5 -18 10
26 5 -17 10
26 5 -16 10
26 5 -15 10
26 5 -14 10
26 5 -13 10
26 5 -12 10
26 5 -11 10
26 5 -10 10
26 5 -9 10
26 5 -8 10
26 5 -7 10
26 5 -6 10
26 5 -5 10
26 5 -4 10
26 5 -3 10
26 5 -2 10
26 5 -1 10
26 5 0 10
26 5 1 10
26 5 2 10
26 5 3 10
26 5 4 10
26 5 5 10
26 5 6 10
26 5 7 10
26 5 8 10
26 5 9 10
26 5 10 10
26 5 11 10
26 5 12 10
26 5 13 10
26 5 14 10
26 5 15 10
26 5 16 10
26 5 17 10
26 5 18 10
26 5 19 10
26 5 20 10
26 6 -20 10
26 6 -19 10
26 6 -18 10
26 6 -17 10
26 6 -16 10
26 6 -15 10
26 6 -14 10
26 6 -13 10
26 6 -12 10
26 6 -11 10
26 6 -10 10
26 6 -9 10
26 6 -8 10
26 6 -7 10
26 6 -6 10
26 6 -5 10
26 6 -4 10
26 6 -3 10
26 6 -2 10
26 6 -1 10
26 6 0 10
26 6 1 10
26 6 2 10
26 6 3 10
26 6 4 10
26 6 5 10
26 6 6 10
26 6 7 10
26 6 8 10
26 6 9 10
26 6 10 10
26 6 11 10
26 6 12 10
26 6 13 10
26 6 14 10
26 6 15 10
26 6 16 10
26 6 17 10
26 6 18 10
26 6 19 10
26 6 20 10
26 7 -20 10
26 7 -19 10
26 7 -18 10
26 7 -17 10
26 7 -16 10
26 7 -15 10
26 7 -14 10
26 7 -13 10
26 7 -12 10
26 7 -11 10
26 7 -10 10
26 7 -9 10
26 7 -8 10
26 7 -7 10
26 7 -6 10
26 7 -5 10
26 7 -4 10
26 7 -3 10
26 7 -2 10
26 7 -1 10
26 7 0 10
26 7 1 10
26 7 2 10
26 7 3 10
26 7 4 10
26 7 5 10
26 7 6 10
26 7 7 10
26 7 8 10
26 7 9 10
26 7 10 10
26 7 11 10
26 7 12 10
26 7 13 10
26 7 14 10
26 7 15 10
26 7 16 10
26 7 17 10
26 7 18 10
26 7 19 10
26 7 20 10
26 8 -20 10
26 8 -19 10
26 8 -18 10
26 8 -17 10
26 8 -16 10
26 8 -15 10
26 8 -14 10
26 8 -13 10
26 8 -12 10
26 8 -11 10
26 8 -10 10
26 8 -9 10
26 8 -8 10
26 8 -7 10
26 8 -6 10
26 8 -5 10
26 8 -4 10
26 8 -3 10
26 8 -2 10
26 8 -1 10
26 8 0 10
26 8 1 10
26 8 2 10
26 8 3 10
26 8 4 10
26 8 5 10
26 8 6 10
26 8 7 10
26 8 8 10
26 8 9 10
26 8 10 10
26 8 11 10
26 8 12 10
26 8 13 10
26 8 14 10
26 8 15 10
26 8 16 10
26 8 17 10
26 8 18 10
26 8 19 10
26 8 20 10
26 9 -20 10
26 9 -19 10
26 9 -18 10
26 9 -17 10
26 9 -16 10
26 9 -15 10
26 9 -14 10
26 9 -13 10
26 9 -12 10
26 9 -11 10
26 9 -10 10
26 9 -9 10
26 9 -8 10
26 9 -7 10
26 9 -6 10
26 9 -5 10
26 9 -4 10
26 9 -3 10
26 9 -2 10
26 9 -1 10
26 9 0 10
26 9 1 10
26 9 2 10
26 9 3 10
26 9 4 10
26 9 5 10
26 9 6 10
26 9 7 10
26 9 8 10
26 9 9 10
26 9 10 10
26 9 11 10
26 9 12 10
26 9 13 10
26 9 14 10
26 9 15 10
26 9 16 10
26 9 17 10
26 9 18 10
26 9 19 10
26 9 20 10
26 10 -20 10
26 10 -19 10
26 10 -18 10
26 10 -17 10
26 10 -16 10
26 10 -15 10
26 10 -14 10
26 10 -13 10
26 10 -12 10
26 10 -11 10
26 10 -10 10
26 10 -9 10
26 10 -8 10
26 10 -7 10
26 10 -6 10
26 10 -5 10
26 10 -4 10
26 10 -3 10
26 10 -2 10
26 10 -1 10
26 10 0 10
26 10 1 10
26 10 2 10
26 10 3 10
26 10 4 10
26 10 5 10
26 10 6 10
26 10 7 10
26 10 8 10
26 10 9 10
26 10 10 10
26 10 11 10
26 10 12 10
26 10 13 10
26 10 14 10
26 10 15 10
26 10 16 10
26 10 17 10
26 10 18 10
26 10 19 10
26 10 20 10
26 11 -20 10
26 11 -19 10
26 11 -18 10
26 11 -17 10
26 11 -16 10
26 11 -15 10
26 11 -14 10
26 11 -13 10
26 11 -12 10
26 11 -11 10
26 11 -10 10
26 11 -9 10
26 11 -8 10
26 11 -7 10
26 11 -6 10
26 11 -5 10
26 11 -4 10
26 11 -3 10
26 11 -2 10
26 11 -1 10
26 11 0 10
26 11 1 10
26 11 2 10
26 11 3 10
26 11 4 10
26 11 5 10
26 11 6 10
26 11 7 10
26 11 8 10
26 11 9 10
26 11 10 10
26 11 11 10
26 11 12 10
26 11 13 10
26 11 14 10
26 11 15 10
26 11 16 10
26 11 17 10
26 11 18 10
26 11 19 10
26 11 20 10
26 12 -20 10
26 12 -19 10
26 12 -18 10
26 12 -17 10
26 12 -16 10
26 12 -15 10
26 12 -14 10
26 12 -13 10
26 12 -12 10
26 12 -11 10
26 12 -10 10
26 12 -9 10
26 12 -8 10
26 12 -7 10
26 12 -6 10
26 12 -5 10
26 12 -4 10
26 12 -3 10
26 12 -2 10
26 12 -1 10
26 12 0 10
26 12 1 10
26 12 2 10
26 12 3 10
26 12 4 10
26 12 5 10
26 12 6 10
26 12 7 10
26 12 8 10
26 12 9 10
26 12 10 10
26 12 11 10
26 12 12 10
26 12 13 10
26 12 14 10
26 12 15 10
26 12 16 10
26 12 17 10
26 12 18 10
26 12 19 10
26 12 20 10
26 13 -20 10
26 13 -19 10
26 13 -18 10
26 13 -17 10
26 13 -16 10
26 13 -15 10
26 13 -14 10
26 13 -13 10
26 13 -12 10
26 13 -11 10
26 13 -10 10
26 13 -9 10
26 13 -8 10
26 13 -7 10
26 13 -6 10
26 13 -5 10
26 13 -4 10
26 13 -3 10
26 13 -2 10
26 13 -1 10
26 13 0 10
26 13 1 10
26 13 2 10
26 13 3 10
26 13 4 10
26 13 5 10
26 13 6 10
26 13 7 10
26 13 8 10
26 13 9 10
26 13 10 10
26 13 11 10
26 13 12 10
26 13 13 10
26 13 14 10
26 13 15 10
26 13 16 10
26 13 17 10
26 13 18 10
26 13 19 10
26 13 20 10
26 14 -20 10
26 14 -19 10
26 14 -18 10
26 14 -17 10
26 14 -16 10
26 14 -15 10
26 14 -14 10
26 14 -13 10
26 14 -12 10
26 14 -11 10
26 14 -10 10
26 14 -9 10
26 14 -8 10
26 14 -7 10
26 14 -6 10
26 14 -5 10
26 14 -4 10
26 14 -3 10
26 14 -2 10
26 14 -1 10
26 14 0 10
26 14 1 10
26 14 2 10
26 14 3 10
26 14 4 10
26 14 5 10
26 14 6 10
26 14 7 10
26 14 8 10
26 14 9 10
26 14 10 10
26 14 11 10
26 14 12 10
26 14 13 10
26 14 14 10
26 14 15 10
26 14 16 10
26 14 17 10
26 14 18 10
26 14 19 10
26 14 20 10
26 15 -20 10
26 15 -19 10
26 15 -18 10
26 15 -17 10
26 15 -16 10
26 15 -15 10
26 15 -14 10
26 15 -13 10
26 15 -12 10
26 15 -11 10
26 15 -10 10
26 15 -9 10
26 15 -8 10
26 15 -7 10
26 15 -6 10
26 15 -5 10
26 15 -4 10
26 15 -3 10
26 15 -2 10
26 15 -1 10
26 15 0 10
26 15 1 10
26 15 2 10
26 15 3 10
26 15 4 10
26 15 5 10
26 15 6 10
26 15 7 10
26 15 8 10
26 15 9 10
26 15 10 10
26 15 11 10
26 15 12 10
26 15 13 10
26 15 14 10
26 15 15 10
26 15 16 10
26 15 17 10
26 15 18 10
26 15 19 10
26 15 20 10
26 16 -20 10
26 16 -19 10
26 16 -18 10
26 16 -17 10
26 16 -16 10
26 16 -15 10
26 16 -14 10
26 16 -13 10
26 16 -12 10
26 16 -11 10
26 16 -10 10
26 16 -9 10
26 16 -8 10
26 16 -7 10
26 16 -6 10
26 16 -5 10
26 16 -4 10
26 16 -3 10
26 16 -2 10
26 16 -1 10
26 16 0 10
26 16 1 10
26 16 2 10
26 16 3 10
26 16 4 10
26 16 5 10
26 16 6 10
26 16 7 10
26 16 8 10
26 16 9 10
26 16 10 10
26 16 11 10
26 16 12 10
26 16 13 10
26 16 14 10
26 16 15 10
26 16 16 10
26 16 17 10
26 16 18 10
26 16 19 10
26 16 20 10
26 17 -20 10
26 17 -19 10
26 17 -18 10
26 17 -17 10
26 17 -16 10
26 17 -15 10
26 17 -14 10
26 17 -13 10
26 17 -12 10
26 17 -11 10
26 17 -10 10
26 17 -9 10
26 17 -8 10
26 17 -7 10
26 17 -6 10
26 17 -5 10
26 17 -4 10
26 17 -3 10
26 17 -2 10
26 17 -1 10
26 17 0 10
26 17 1 10
26 17 2 10
26 17 3 10
26 17 4 10
26 17 5 10
26 17 6 10
26 17 7 10
26 17 8 10
26 17 9 10
26 17 10 10
26 17 11 10
26 17 12 10
26 17 13 10
26 17 14 10
26 17 15 10
26 17 16 10
26 17 17 10
26 17 18 10
26 17 19 10
26 17 20 10
26 18 -20 10
26 18 -19 10
26 18 -18 10
26 18 -17 10
26 18 -16 10
26 18 -15 10
26 18 -14 10
26 18 -13 10
26 18 -12 10
26 18 -11 10
26 18 -10 10
26 18 -9 10
26 18 -8 10
26 18 -7 10
26 18 -6 10
26 18 -5 10
26 18 -4 10
26 18 -3 10
26 18 -2 10
26 18 -1 10
26 18 0 10
26 18 1 10
26 18 2 10
26 18 3 10
26 18 4 10
26 18 5 10
26 18 6 10
26 18 7 10
26 18 8 10
26 18 9 10
26 18 10 10
26 18 11 10
26 18 12 10
26 18 13 10
26 18 14 10
26 18 15 10
26 18 16 10
26 18 17 10
26 18 18 10
26 18 19 10
26 18 20 10
26 19 -20 10
26 19 -19 10
26 19 -18 10
26 19 -17 10
26 19 -16 10
26 19 -15 10
26 19 -14 10
26 19 -13 10
26 19 -12 10
26 19 -11 10
26 19 -10 10
26 19 -9 10
26 19 -8 10
26 19 -7 10
26 19 -6 10
26 19 -5 10
26 19 -4 10
26 19 -3 10
26 19 -2 10
26 19 -1 10
26 19 0 10
26 19 1 10
26 19 2 10
26 19 3 10
26 19 4 10
26 19 5 10
26 19 6 10
26 19 7 10
26 19 8 10
26 19 9 10
26 19 10 10
26 19 11 10
26 19 12 10
26 19 13 10
26 19 14 10
26 19 15 10
26 19 16 10
26 19 17 10
26 19 18 10
26 19 19 10
26 19 20 10
26 20 -20 10
26 20 -19 10
26 20 -18 10
26 20 -17 10
26 20 -16 10
26 20 -15 10
26 20 -14 10
26 20 -13 10
26 20 -12 10
26 20 -11 10
26 20 -10 10
26 20 -9 10
26 20 -8 10
26 20 -7 10
26 20 -6 10
26 20 -5 10
26 20 -4 10
26 20 -3 10
26 20 -2 10
26 20 -1 10
26 20 0 10
26 20 1 10
26 20 2 10
26 20 3 10
26 20 4 10
26 20 5 10
26 20 6 10
26 20 7 10
26 20 8 10
26 20 9 10
26 20 10 10
26 20 11 10
26 20 12 10
26 20 13 10
26 20 14 10
26 20 15 10
26 20 16 10
26 20 17 10
26 20 18 10
26 20 19 10
26 20 20 10
26 -20 -20 -10
26 -20 -19 -10
26 -20 -18 -10
26 -20 -17 -10
26 -20 -16 -10
26 -20 -15 -10
26 -20 -14 -10
26 -20 -13 -10
26 -20 -12 -10
26 -20 -11 -10
26 -20 -10 -10
26 -20 -9 -10
26 -20 -8 -10
26 -20 -7 -10
26 -20 -6 -10
26 -20 -5 -10
26 -20 -4 -10
26 -20 -3 -10
26 -20 -2 -10
26 -20 -1 -10
26 -20 0 -10
26 -20 1 -10
26 -20 2 -10
26 -20 3 -10
26 -20 4 -10
26 -20 5 -10
26 -20 6 -10
26 -20 7 -10
26 -20 8 -10
26 -20 9 -10
26 -20 10 -10
26 -20 11 -10
26 -20 12 -10
26 -20 13 -10
26 -20 14 -10
26 -20 15 -10
26 -20 16 -10
26 -20 17 -10
26 -20 18 -10
26 -20 19 -10
26 -20 20 -10
26 -19 -20 -10
26 -19 -19 -10
26 -19 -18 -10
26 -19 -17 -10
26 -19 -16 -10
26 -19 -15 -10
26 -19 -14 -10
26 -19 -13 -10
26 -19 -12 -10
26 -19 -11 -10
26 -19 -10 -10
26 -19 -9 -10
26 -19 -8 -10
26 -19 -7 -10
26 -19 -6 -10
26 -19 -5 -10
26 -19 -4 -10
26 -19 -3 -10
26 -19 -2 -10
26 -19 -1 -10
26 -19 0 -10
26 -19 1 -10
26 -19 2 -10
26 -19 3 -10
26 -19 4 -10
26 -19 5 -10
26 -19 6 -10
26 -19 7 -10
26 -19 8 -10
26 -19 9 -10
26 -19 10 -10
26 -19 11 -10
26 -19 12 -10
26 -19 13 -10
26 -19 14 -10
26 -19 15 -10
26 -19 16 -10
26 -19 17 -10
26 -19 18 -10
26 -19 19 -10
26 -19 20 -10
26 -18 -20 -10
26 -18 -19 -10
26 -18 -18 -10
26 -18 -17 -10
26 -18 -16 -10
26 -18 -15 -10
26 -18 -14 -10
26 -18 -13 -10
26 -18 -12 -10
26 -18 -11 -10
26 -18 -10 -10
26 -18 -9 -10
26 -18 -8 -10
26 -18 -7 -10
26 -18 -6 -10
26 -18 -5 -10
26 -18 -4 -10
26 -18 -3 -10
26 -18 -2 -10
26 -18 -1 -10
26 -18 0 -10
26 -18 1 -10
26 -18 2 -10
26 -18 3 -10
26 -18 4 -10
26 -18 5 -10
26 -18 6 -10
26 -18 7 -10
26 -18 8 -10
26 -18 9 -10
26 -18 10 -10
26 -18 11 -10
26 -18 12 -10
26 -18 13 -10
26 -18 14 -10
26 -18 15 -10
26 -18 16 -10
26 -18 17 -10
26 -18 18 -10
26 -18 19 -10
26 -18 20 -10
26 -17 -20 -10
26 -17 -19 -10
26 -17 -18 -10
26 -17 -17 -10
26 -17 -16 -10
26 -17 -15 -10
26 -17 -14 -10
26 -17 -13 -10
26 -17 -12 -10
26 -17 -11 -10
26 -17 -10 -10
26 -17 -9 -10
26 -17 -8 -10
26 -17 -7 -10
26 -17 -6 -10
26 -17 -5 -10
26 -17 -4 -10
26 -17 -3 -10
26 -17 -2 -10
26 -17 -1 -10
26 -17 0 -10
26 -17 1 -10
26 -17 2 -10
26 -17 3 -10
26 -17 4 -10
26 -17 5 -10
26 -17 6 -10
26 -17 7 -10
26 -17 8 -10
26 -17 9 -10
26 -17 10 -10
26 -17 11 -10
26 -17 12 -10
26 -17 13 -10
26 -17 14 -10
26 -17 15 -10
26 -17 16 -10
26 -17 17 -10
26 -17 18 -10
26 -17 19 -10
26 -17 20 -10
26 -16 -20 -10
26 -16 -19 -10
26 -16 -18 -10
26 -16 -17 -10
26 -16 -16 -10
26 -16 -15 -10
26 -16 -14 -10
26 -16 -13 -10
26 -16 -12 -10
26 -16 -11 -10
26 -16 -10 -10
26 -16 -9 -10
26 -16 -8 -10
26 -16 -7 -10
26 -16 -6 -10
26 -16 -5 -10
26 -16 -4 -10
26 -16 -3 -10
26 -16 -2 -10
26 -16 -1 -10
26 -16 0 -10
26 -16 1 -10
26 -16 2 -10
26 -16 3 -10
26 -16 4 -10
26 -16 5 -10
26 -16 6 -10
26 -16 7 -10
26 -16 8 -10
26 -16 9 -10
26 -16 10 -10
26 -16 11 -10
26 -16 12 -10
26 -16 13 -10
26 -16 14 -10
26 -16 15 -10
26 -16 16 -10
26 -16 17 -10
26 -16 18 -10
26 -16 19 -10
26 -16 20 -10
26 -15 -20 -10
26 -15 -19 -10
26 -15 -18 -10
26 -15 -17 -10
26 -15 -16 -10
26 -15 -15 -10
26 -15 -14 -10
26 -15 -13 -10
26 -15 -12 -10
26 -15 -11 -10
26 -15 -10 -10
26 -15 -9 -10
26 -15 -8 -10
26 -15 -7 -10
26 -15 -6 -10
26 -15 -5 -10
26 -15 -4 -10
26 -15 -3 -10
26 -15 -2 -10
26 -15 -1 -10
26 -15 0 -10
26 -15 1 -10
26 -15 2 -10
26 -15 3 -10
26 -15 4 -10
26 -15 5 -10
26 -15 6 -10
26 -15 7 -10
26 -15 8 -10
26 -15 9 -10
26 -15 10 -10
26 -15 11 -10
26 -15 12 -10
26 -15 13 -10
26 -15 14 -10
26 -15 15 -10
26 -15 16 -10
26 -15 17 -10
26 -15 18 -10
26 -15 19 -10
26 -15 20 -10
26 -14 -20 -10
26 -14 -19 -10
26 -14 -18 -10
26 -14 -17 -10
26 -14 -16 -10
26 -14 -15 -10
26 -14 -14 -10
26 -14 -13 -10
26 -14 -12 -10
26 -14 -11 -10
26 -14 -10 -10
26 -14 -9 -10
26 -14 -8 -10
26 -14 -7 -10
26 -14 -6 -10
26 -14 -5 -10
26 -14 -4 -10
26 -14 -3 -10
26 -14 -2 -10
26 -14 -1 -10
26 -14 0 -10
26 -14 1 -10
26 -14 2 -10
26 -14 3 -10
26 -14 4 -10
26 -14 5 -10
26 -14 6 -10
26 -14 7 -10
26 -14 8 -10
26 -14 9 -10
26 -14 10 -10
26 -14 11 -10
26 -14 12 -10
26 -14 13 -10
26 -14 14 -10
26 -14 15 -10
26 -14 16 -10
26 -14 17 -10